ls
Title: "out"
Date: Fri Jun 18 04:57:49 2021
Plotname: Transient Analysis
Flags: real
No. Variables: 12
No. Points: 2500
Command: JoSIM v2.5.2
Variables:
 0 time Seconds
 1 P(B1|X1) Phase
 2 P(B1|X5) Phase
 3 P(B5|X9) Phase
 4 P(B1|X9) Phase
 5 P(B1|X6) Phase
 6 P(B1|X8) Phase
 7 P(B2|X9) Phase
 8 P(B3|X9) Phase
 9 P(B4|X9) Phase
 10 P(B6|X9) Phase
 11 P(B1|X12) Phase
Values:
0    0
     -0
     0
     0
     0
     0
     0
     0
     0
     0
     0
     0
1    2e-13
     2.88986e-05
     3.02423e-05
     2.86366e-05
     -5.75378e-07
     2.88986e-05
     3.02187e-05
     3.03761e-05
     5.75886e-05
     2.2434e-05
     2.61488e-05
     2.88927e-05
2    4e-13
     0.000160969
     0.000168964
     0.000159216
     -4.34253e-06
     0.000160969
     0.000168834
     0.000168337
     0.000287038
     0.000114661
     0.000145775
     0.000161155
3    6e-13
     0.000512571
     0.000540066
     0.0005066
     -1.7302e-05
     0.000512572
     0.000539659
     0.00053459
     0.000826129
     0.000339563
     0.000465042
     0.000513985
4    8e-13
     0.00122605
     0.00129775
     0.001212
     -4.96268e-05
     0.00122605
     0.0012968
     0.00127793
     0.00180483
     0.000765914
     0.00111544
     0.00123173
5    1e-12
     0.00244899
     0.00260627
     0.00242354
     -0.000115931
     0.00244899
     0.00260444
     0.00255557
     0.00332649
     0.00146222
     0.00223613
     0.00246571
6    1.2e-12
     0.00431444
     0.00462039
     0.0042777
     -0.000235078
     0.00431444
     0.0046173
     0.00451407
     0.00545958
     0.00249324
     0.00395696
     0.00435493
7    1.4e-12
     0.00692511
     0.00746918
     0.00688452
     -0.000429482
     0.00692511
     0.00746452
     0.00727354
     0.00823611
     0.00391767
     0.00638448
     0.00701068
8    1.6e-12
     0.0103428
     0.0112445
     0.0103175
     -0.000723816
     0.0103428
     0.0112381
     0.0109162
     0.0116537
     0.00578585
     0.00959215
     0.0105061
9    1.8e-12
     0.0145832
     0.0159943
     0.0146085
     -0.00114313
     0.0145832
     0.0159862
     0.0154797
     0.0156801
     0.00813708
     0.0136149
     0.014871
10   2e-12
     0.0196159
     0.02172
     0.0197472
     -0.00171048
     0.0196159
     0.0217107
     0.0209546
     0.0202585
     0.0109967
     0.0184474
     0.0200913
11   2.2e-12
     0.0253681
     0.0283781
     0.0256838
     -0.00244437
     0.0253681
     0.0283683
     0.0272864
     0.0253143
     0.0143729
     0.0240465
     0.0261124
12   2.4e-12
     0.0317321
     0.0358845
     0.0323355
     -0.00335622
     0.0317322
     0.0358756
     0.0343807
     0.0307608
     0.0182545
     0.0303354
     0.0328453
13   2.6e-12
     0.0385751
     0.0441216
     0.0395935
     -0.00444837
     0.0385752
     0.0441154
     0.0421105
     0.0365056
     0.0226091
     0.0372104
     0.0401755
14   2.8e-12
     0.0457493
     0.0529465
     0.0473322
     -0.00571285
     0.0457494
     0.0529452
     0.0503263
     0.0424557
     0.0273826
     0.0445489
     0.0479718
15   3e-12
     0.053103
     0.0622006
     0.0554173
     -0.00713105
     0.0531033
     0.0622069
     0.0588662
     0.0485218
     0.0325015
     0.0522178
     0.0560963
16   3.2e-12
     0.0604912
     0.0717191
     0.0637139
     -0.00867462
     0.0604916
     0.0717356
     0.067566
     0.0546217
     0.0378753
     0.060081
     0.0644129
17   3.4e-12
     0.0677837
     0.0813399
     0.0720935
     -0.0103073
     0.0677841
     0.0813692
     0.0762695
     0.0606829
     0.0434018
     0.0680076
     0.0727957
18   3.6e-12
     0.0748722
     0.0909122
     0.0804396
     -0.0119878
     0.0748728
     0.0909564
     0.084837
     0.0666439
     0.048973
     0.0758779
     0.0811345
19   3.8e-12
     0.0816752
     0.100303
     0.0886513
     -0.0136729
     0.081676
     0.100364
     0.0931514
     0.0724549
     0.0544823
     0.0835884
     0.08934
20   4e-12
     0.08814
     0.109403
     0.0966462
     -0.015321
     0.0881411
     0.10948
     0.101124
     0.0780783
     0.0598312
     0.0910555
     0.0973457
21   4.2e-12
     0.0942431
     0.11813
     0.104361
     -0.0168957
     0.0942446
     0.118223
     0.108695
     0.083488
     0.0649356
     0.0982178
     0.105109
22   4.4e-12
     0.099988
     0.126431
     0.111754
     -0.0183683
     0.0999899
     0.126536
     0.115837
     0.0886688
     0.0697313
     0.105036
     0.11261
23   4.6e-12
     0.105402
     0.13428
     0.118799
     -0.0197199
     0.105404
     0.134392
     0.12255
     0.0936157
     0.0741771
     0.111494
     0.119849
24   4.8e-12
     0.110531
     0.14168
     0.125492
     -0.0209425
     0.110534
     0.141794
     0.128861
     0.098333
     0.0782573
     0.117595
     0.126845
25   5e-12
     0.115436
     0.14866
     0.131842
     -0.0220387
     0.115439
     0.148766
     0.134818
     0.102833
     0.0819804
     0.123361
     0.133629
26   5.2e-12
     0.120182
     0.155267
     0.137875
     -0.0230209
     0.120186
     0.155355
     0.140484
     0.107135
     0.0853774
     0.12883
     0.140244
27   5.4e-12
     0.12484
     0.161566
     0.143626
     -0.0239092
     0.124845
     0.161624
     0.145933
     0.111266
     0.0884979
     0.13405
     0.146735
28   5.6e-12
     0.129477
     0.167632
     0.149144
     -0.024729
     0.129482
     0.167649
     0.151243
     0.115255
     0.0914047
     0.139077
     0.153152
29   5.8e-12
     0.134151
     0.173546
     0.15448
     -0.0255082
     0.134157
     0.173511
     0.156492
     0.119137
     0.0941686
     0.143975
     0.15954
30   6e-12
     0.138914
     0.179391
     0.159696
     -0.0262748
     0.138921
     0.179293
     0.161751
     0.122949
     0.0968625
     0.148804
     0.165944
31   6.2e-12
     0.143802
     0.185245
     0.164853
     -0.027054
     0.143809
     0.185074
     0.167082
     0.126729
     0.0995557
     0.153626
     0.172399
32   6.4e-12
     0.14884
     0.191178
     0.170011
     -0.0278666
     0.148848
     0.190929
     0.172537
     0.130514
     0.10231
     0.158496
     0.178933
33   6.6e-12
     0.15404
     0.19725
     0.175229
     -0.0287279
     0.154048
     0.19692
     0.178153
     0.134341
     0.105177
     0.163463
     0.185568
34   6.8e-12
     0.159402
     0.203507
     0.180559
     -0.029647
     0.159409
     0.203097
     0.183953
     0.138242
     0.108193
     0.168566
     0.192316
35   7e-12
     0.164914
     0.209981
     0.186044
     -0.0306267
     0.164921
     0.209497
     0.189948
     0.142245
     0.111383
     0.173834
     0.199183
36   7.2e-12
     0.170558
     0.21669
     0.191719
     -0.031665
     0.170565
     0.216141
     0.196135
     0.146371
     0.114757
     0.179286
     0.206167
37   7.4e-12
     0.176311
     0.223638
     0.197605
     -0.0327553
     0.176318
     0.223038
     0.202504
     0.150635
     0.118314
     0.18493
     0.21326
38   7.6e-12
     0.182146
     0.230813
     0.203712
     -0.0338887
     0.182151
     0.230179
     0.209033
     0.155046
     0.122041
     0.190763
     0.220454
39   7.8e-12
     0.188033
     0.238197
     0.210038
     -0.0350546
     0.188037
     0.237548
     0.215698
     0.159604
     0.125921
     0.196772
     0.227732
40   8e-12
     0.193945
     0.24576
     0.216567
     -0.0362426
     0.193949
     0.245115
     0.222469
     0.164301
     0.129929
     0.202938
     0.23508
41   8.2e-12
     0.19986
     0.253466
     0.223276
     -0.0374431
     0.199862
     0.252846
     0.229317
     0.169125
     0.134038
     0.209235
     0.242481
42   8.4e-12
     0.205756
     0.261276
     0.230132
     -0.0386482
     0.205757
     0.260701
     0.236214
     0.174055
     0.138221
     0.215633
     0.249921
43   8.6e-12
     0.211619
     0.269151
     0.237095
     -0.0398521
     0.211618
     0.268636
     0.243132
     0.179069
     0.142452
     0.222098
     0.257383
44   8.8e-12
     0.217437
     0.277054
     0.244124
     -0.041051
     0.217435
     0.276609
     0.250048
     0.184139
     0.146705
     0.228597
     0.264856
45   9e-12
     0.223205
     0.284948
     0.251177
     -0.0422426
     0.223202
     0.284581
     0.256943
     0.18924
     0.150959
     0.2351
     0.272328
46   9.2e-12
     0.228922
     0.292805
     0.258215
     -0.0434262
     0.228919
     0.292517
     0.263803
     0.194342
     0.155196
     0.241578
     0.279791
47   9.4e-12
     0.23459
     0.3006
     0.265203
     -0.0446017
     0.234587
     0.300386
     0.270617
     0.199421
     0.159399
     0.248007
     0.287239
48   9.6e-12
     0.240215
     0.308319
     0.272114
     -0.0457692
     0.240212
     0.308167
     0.27738
     0.204456
     0.163554
     0.25437
     0.294668
49   9.8e-12
     0.245804
     0.31595
     0.278928
     -0.046929
     0.245802
     0.315845
     0.28409
     0.209429
     0.167653
     0.260654
     0.302076
50   1e-11
     0.251367
     0.323491
     0.285634
     -0.0480808
     0.251366
     0.323412
     0.290746
     0.214327
     0.171689
     0.266853
     0.309463
51   1.02e-11
     0.256912
     0.330946
     0.292228
     -0.049224
     0.256912
     0.330869
     0.297352
     0.219144
     0.175655
     0.272967
     0.31683
52   1.04e-11
     0.262448
     0.338323
     0.298716
     -0.050358
     0.262451
     0.338223
     0.303915
     0.223879
     0.179552
     0.279
     0.324182
53   1.06e-11
     0.267984
     0.345634
     0.305109
     -0.0514817
     0.267989
     0.345487
     0.310439
     0.228534
     0.183381
     0.284962
     0.331522
54   1.08e-11
     0.273527
     0.352896
     0.311424
     -0.0525946
     0.273534
     0.352679
     0.316934
     0.233118
     0.187146
     0.290865
     0.338855
55   1.1e-11
     0.279083
     0.360125
     0.31768
     -0.0536966
     0.279092
     0.359819
     0.323408
     0.237643
     0.190855
     0.296725
     0.346187
56   1.12e-11
     0.284657
     0.367341
     0.323901
     -0.0547885
     0.284668
     0.366931
     0.329869
     0.242123
     0.194518
     0.302559
     0.353523
57   1.14e-11
     0.290251
     0.374561
     0.330107
     -0.0558719
     0.290264
     0.374037
     0.336325
     0.246574
     0.198147
     0.308381
     0.36087
58   1.16e-11
     0.295868
     0.381801
     0.33632
     -0.0569496
     0.295883
     0.381161
     0.342786
     0.251013
     0.201758
     0.31421
     0.368233
59   1.18e-11
     0.30151
     0.389075
     0.342559
     -0.058025
     0.301526
     0.388324
     0.349259
     0.255456
     0.205365
     0.320058
     0.375617
60   1.2e-11
     0.307176
     0.396397
     0.348839
     -0.0591022
     0.307193
     0.395543
     0.355752
     0.259917
     0.208985
     0.325939
     0.383029
61   1.22e-11
     0.312866
     0.403775
     0.355173
     -0.0601854
     0.312883
     0.402834
     0.362272
     0.26441
     0.212631
     0.331862
     0.39047
62   1.24e-11
     0.318579
     0.411217
     0.361569
     -0.0612789
     0.318595
     0.410207
     0.368824
     0.268944
     0.216318
     0.337835
     0.397946
63   1.26e-11
     0.324315
     0.418725
     0.368033
     -0.062386
     0.32433
     0.417668
     0.375415
     0.273527
     0.220056
     0.343863
     0.405459
64   1.28e-11
     0.330072
     0.426301
     0.374566
     -0.0635094
     0.330085
     0.425221
     0.382049
     0.278164
     0.223851
     0.349948
     0.41301
65   1.3e-11
     0.335848
     0.433945
     0.381167
     -0.0646506
     0.335859
     0.432864
     0.388728
     0.282856
     0.227708
     0.35609
     0.420601
66   1.32e-11
     0.341643
     0.441653
     0.387832
     -0.0658096
     0.341651
     0.440593
     0.395454
     0.287602
     0.231628
     0.362287
     0.428232
67   1.34e-11
     0.347454
     0.449422
     0.394558
     -0.0669853
     0.347459
     0.448399
     0.402228
     0.292398
     0.235606
     0.368535
     0.435903
68   1.36e-11
     0.353281
     0.457246
     0.401336
     -0.0681755
     0.353283
     0.456274
     0.40905
     0.297241
     0.239636
     0.374829
     0.443612
69   1.38e-11
     0.359121
     0.465119
     0.408161
     -0.0693769
     0.359121
     0.464207
     0.415916
     0.302122
     0.243711
     0.381164
     0.451358
70   1.4e-11
     0.364975
     0.473037
     0.415025
     -0.0705861
     0.364972
     0.472186
     0.422826
     0.307035
     0.247819
     0.387533
     0.459139
71   1.42e-11
     0.370839
     0.480992
     0.42192
     -0.0717991
     0.370834
     0.4802
     0.429773
     0.311972
     0.251951
     0.39393
     0.466953
72   1.44e-11
     0.376713
     0.488981
     0.428839
     -0.0730126
     0.376707
     0.488238
     0.436755
     0.316926
     0.256095
     0.400348
     0.474798
73   1.46e-11
     0.382596
     0.496997
     0.435776
     -0.0742236
     0.382589
     0.496292
     0.443765
     0.32189
     0.260242
     0.406782
     0.482671
74   1.48e-11
     0.388487
     0.505037
     0.442724
     -0.0754299
     0.38848
     0.504354
     0.450799
     0.326856
     0.264383
     0.413226
     0.490572
75   1.5e-11
     0.394385
     0.513097
     0.449679
     -0.0766304
     0.394379
     0.512419
     0.457851
     0.331821
     0.268514
     0.419676
     0.498499
76   1.52e-11
     0.400289
     0.521177
     0.456636
     -0.0778249
     0.400285
     0.520483
     0.464917
     0.33678
     0.272631
     0.426128
     0.50645
77   1.54e-11
     0.4062
     0.529274
     0.463593
     -0.0790142
     0.406199
     0.528545
     0.471993
     0.34173
     0.276731
     0.43258
     0.514425
78   1.56e-11
     0.412117
     0.537388
     0.470548
     -0.0801997
     0.412119
     0.536607
     0.479075
     0.34667
     0.280816
     0.439031
     0.522425
79   1.58e-11
     0.418042
     0.54552
     0.477501
     -0.0813835
     0.418047
     0.544672
     0.486162
     0.3516
     0.284888
     0.44548
     0.53045
80   1.6e-11
     0.423974
     0.55367
     0.484452
     -0.0825678
     0.423983
     0.552744
     0.493252
     0.356521
     0.28895
     0.451928
     0.5385
81   1.62e-11
     0.429916
     0.561842
     0.491404
     -0.0837549
     0.429928
     0.560828
     0.500346
     0.361435
     0.293007
     0.458377
     0.546578
82   1.64e-11
     0.435868
     0.570038
     0.49836
     -0.0849469
     0.435883
     0.568932
     0.507445
     0.366345
     0.297063
     0.46483
     0.554685
83   1.66e-11
     0.441832
     0.57826
     0.505323
     -0.0861454
     0.44185
     0.577063
     0.514551
     0.371253
     0.301123
     0.47129
     0.562822
84   1.68e-11
     0.44781
     0.586513
     0.512299
     -0.0873516
     0.44783
     0.585227
     0.521668
     0.376164
     0.305191
     0.47776
     0.570994
85   1.7e-11
     0.453803
     0.594799
     0.519293
     -0.0885662
     0.453825
     0.593431
     0.528799
     0.381082
     0.309272
     0.484245
     0.579201
86   1.72e-11
     0.459814
     0.603123
     0.52631
     -0.0897893
     0.459836
     0.601682
     0.535948
     0.386009
     0.313368
     0.490749
     0.587447
87   1.74e-11
     0.465843
     0.611488
     0.533356
     -0.0910206
     0.465865
     0.609985
     0.54312
     0.39095
     0.317481
     0.497276
     0.595734
88   1.76e-11
     0.471893
     0.619899
     0.540435
     -0.0922595
     0.471913
     0.618344
     0.550319
     0.395909
     0.321614
     0.503829
     0.604064
89   1.78e-11
     0.477964
     0.628359
     0.547551
     -0.0935052
     0.477982
     0.626763
     0.557551
     0.400887
     0.325767
     0.510413
     0.61244
90   1.8e-11
     0.484057
     0.63687
     0.554708
     -0.0947571
     0.484072
     0.635245
     0.564817
     0.405887
     0.329942
     0.51703
     0.620864
91   1.82e-11
     0.490173
     0.645437
     0.561909
     -0.0960144
     0.490185
     0.643791
     0.572123
     0.410911
     0.334139
     0.523682
     0.629337
92   1.84e-11
     0.496312
     0.654062
     0.569154
     -0.0972767
     0.496321
     0.652402
     0.57947
     0.415961
     0.338358
     0.530372
     0.637862
93   1.86e-11
     0.502475
     0.662747
     0.576445
     -0.0985438
     0.502481
     0.661078
     0.586862
     0.421036
     0.3426
     0.537099
     0.646439
94   1.88e-11
     0.508661
     0.671494
     0.583782
     -0.0998156
     0.508663
     0.669818
     0.594298
     0.426137
     0.346865
     0.543865
     0.655071
95   1.9e-11
     0.51487
     0.680304
     0.591163
     -0.101093
     0.514869
     0.678621
     0.601781
     0.431263
     0.351154
     0.550669
     0.663758
96   1.92e-11
     0.521102
     0.68918
     0.598588
     -0.102375
     0.521098
     0.687487
     0.60931
     0.436415
     0.355465
     0.557512
     0.672501
97   1.94e-11
     0.527356
     0.698122
     0.606056
     -0.103663
     0.52735
     0.696413
     0.616886
     0.441591
     0.3598
     0.564391
     0.681301
98   1.96e-11
     0.533631
     0.707131
     0.613564
     -0.104958
     0.533624
     0.705401
     0.624506
     0.446791
     0.364158
     0.571307
     0.69016
99   1.98e-11
     0.539928
     0.716208
     0.621112
     -0.10626
     0.539921
     0.714448
     0.632171
     0.452012
     0.368539
     0.578259
     0.699078
100  2e-11
     0.546246
     0.725352
     0.628698
     -0.10757
     0.546239
     0.723554
     0.63988
     0.457256
     0.372942
     0.585245
     0.708056
101  2.02e-11
     0.552557
     0.734536
     0.636293
     -0.108886
     0.552551
     0.73269
     0.6476
     0.462461
     0.377344
     0.592238
     0.717067
102  2.04e-11
     0.558785
     0.743679
     0.643823
     -0.110207
     0.558781
     0.741778
     0.655254
     0.467514
     0.381697
     0.59917
     0.726037
103  2.06e-11
     0.564813
     0.752656
     0.65117
     -0.111526
     0.564811
     0.750691
     0.662718
     0.472274
     0.385937
     0.605934
     0.734847
104  2.08e-11
     0.570496
     0.761309
     0.658191
     -0.112833
     0.570497
     0.759272
     0.669838
     0.476607
     0.389992
     0.612394
     0.743349
105  2.1e-11
     0.575681
     0.769461
     0.66473
     -0.114114
     0.575686
     0.767348
     0.676448
     0.480404
     0.393792
     0.618404
     0.751384
106  2.12e-11
     0.580227
     0.776942
     0.67064
     -0.115347
     0.580234
     0.774746
     0.682387
     0.483589
     0.397268
     0.623825
     0.758798
107  2.14e-11
     0.584017
     0.783598
     0.675792
     -0.116511
     0.584027
     0.781315
     0.687517
     0.486119
     0.400355
     0.628536
     0.765459
108  2.16e-11
     0.586974
     0.789302
     0.680094
     -0.117578
     0.586987
     0.786931
     0.69173
     0.487986
     0.402997
     0.632447
     0.771265
109  2.18e-11
     0.589063
     0.793965
     0.683486
     -0.118521
     0.589078
     0.791503
     0.694957
     0.489207
     0.405144
     0.635498
     0.776153
110  2.2e-11
     0.590293
     0.797536
     0.685949
     -0.119314
     0.590308
     0.794984
     0.697174
     0.489826
     0.406759
     0.637669
     0.780097
111  2.22e-11
     0.590712
     0.800006
     0.687498
     -0.119932
     0.590728
     0.797363
     0.698398
     0.489904
     0.407819
     0.638976
     0.783108
112  2.24e-11
     0.590408
     0.801402
     0.688185
     -0.12036
     0.590424
     0.798667
     0.698685
     0.489512
     0.40832
     0.639466
     0.785234
113  2.26e-11
     0.589493
     0.801786
     0.688087
     -0.120588
     0.589508
     0.798961
     0.698129
     0.488731
     0.408275
     0.639215
     0.786547
114  2.28e-11
     0.5881
     0.801251
     0.687302
     -0.120617
     0.588113
     0.798336
     0.696848
     0.487645
     0.40772
     0.638321
     0.787144
115  2.3e-11
     0.586372
     0.799915
     0.685943
     -0.120456
     0.586383
     0.79691
     0.694985
     0.486334
     0.406709
     0.636898
     0.787135
116  2.32e-11
     0.584452
     0.797912
     0.684131
     -0.120128
     0.58446
     0.794819
     0.692692
     0.484875
     0.405316
     0.63507
     0.786639
117  2.34e-11
     0.582474
     0.79539
     0.681989
     -0.119661
     0.582479
     0.792209
     0.690124
     0.483339
     0.40363
     0.632962
     0.785775
118  2.36e-11
     0.58056
     0.792502
     0.679639
     -0.119092
     0.580561
     0.789233
     0.687435
     0.48179
     0.401748
     0.630696
     0.78466
119  2.38e-11
     0.578809
     0.789397
     0.677194
     -0.118461
     0.578806
     0.786044
     0.684766
     0.480282
     0.399776
     0.628388
     0.783402
120  2.4e-11
     0.577299
     0.786223
     0.67476
     -0.117809
     0.577292
     0.782788
     0.682239
     0.47886
     0.397815
     0.626142
     0.782095
121  2.42e-11
     0.576082
     0.783112
     0.672429
     -0.117175
     0.576072
     0.779601
     0.679958
     0.477562
     0.395959
     0.624047
     0.780821
122  2.44e-11
     0.575186
     0.780184
     0.67028
     -0.116592
     0.575172
     0.776604
     0.678001
     0.476418
     0.394291
     0.622174
     0.779646
123  2.46e-11
     0.574615
     0.777539
     0.668379
     -0.116089
     0.574598
     0.7739
     0.676422
     0.47545
     0.392877
     0.62058
     0.778618
124  2.48e-11
     0.574353
     0.775255
     0.666775
     -0.115684
     0.574334
     0.771571
     0.675247
     0.474672
     0.391762
     0.619299
     0.77777
125  2.5e-11
     0.574369
     0.77339
     0.665503
     -0.115386
     0.574348
     0.769676
     0.674483
     0.474094
     0.39097
     0.618354
     0.777121
126  2.52e-11
     0.575189
     0.771979
     0.664585
     -0.115197
     0.574596
     0.768255
     0.674112
     0.473717
     0.390506
     0.617747
     0.776678
127  2.54e-11
     0.578373
     0.771034
     0.664025
     -0.115111
     0.575028
     0.767322
     0.674102
     0.473538
     0.390356
     0.617468
     0.776436
128  2.56e-11
     0.586679
     0.770549
     0.663815
     -0.115114
     0.575589
     0.766873
     0.674405
     0.473547
     0.39049
     0.617493
     0.77638
129  2.58e-11
     0.603976
     0.770498
     0.663934
     -0.11519
     0.576226
     0.766884
     0.674967
     0.473731
     0.390865
     0.61779
     0.776491
130  2.6e-11
     0.634986
     0.77084
     0.66435
     -0.115322
     0.57689
     0.767314
     0.675726
     0.47407
     0.391432
     0.618318
     0.776745
131  2.62e-11
     0.684386
     0.771522
     0.665021
     -0.11549
     0.57754
     0.768111
     0.676621
     0.474542
     0.392138
     0.619031
     0.777115
132  2.64e-11
     0.756013
     0.772483
     0.665897
     -0.115677
     0.578141
     0.769209
     0.677594
     0.475118
     0.392931
     0.619878
     0.777572
133  2.66e-11
     0.852442
     0.773655
     0.666923
     -0.115871
     0.578668
     0.770538
     0.678591
     0.475771
     0.393763
     0.620812
     0.778091
134  2.68e-11
     0.974931
     0.77497
     0.668042
     -0.11606
     0.579105
     0.772025
     0.679564
     0.47647
     0.394589
     0.621782
     0.778646
135  2.7e-11
     1.12369
     0.776358
     0.669197
     -0.116238
     0.579447
     0.773594
     0.680476
     0.477182
     0.395376
     0.622745
     0.779212
136  2.72e-11
     1.29779
     0.777756
     0.670332
     -0.116401
     0.579692
     0.775174
     0.681297
     0.47788
     0.396096
     0.623661
     0.779771
137  2.74e-11
     1.49532
     0.779104
     0.671398
     -0.116548
     0.579847
     0.7767
     0.682006
     0.478534
     0.39673
     0.624495
     0.780304
138  2.76e-11
     1.71384
     0.780354
     0.672353
     -0.116681
     0.579922
     0.778112
     0.682591
     0.47912
     0.397264
     0.62522
     0.780797
139  2.78e-11
     1.95093
     0.781463
     0.673164
     -0.1168
     0.579932
     0.779361
     0.683047
     0.479619
     0.397693
     0.625818
     0.78124
140  2.8e-11
     2.20474
     0.782401
     0.673808
     -0.116908
     0.579891
     0.78041
     0.683374
     0.480015
     0.398016
     0.626277
     0.781625
141  2.82e-11
     2.47487
     0.783147
     0.674271
     -0.117005
     0.579813
     0.78123
     0.68358
     0.480299
     0.398234
     0.626591
     0.781947
142  2.84e-11
     2.76293
     0.783689
     0.674551
     -0.117091
     0.579711
     0.781807
     0.683674
     0.480467
     0.398353
     0.626763
     0.782204
143  2.86e-11
     3.0725
     0.784028
     0.674655
     -0.117164
     0.579596
     0.782136
     0.683669
     0.480521
     0.398378
     0.626802
     0.782394
144  2.88e-11
     3.40852
     0.784169
     0.674598
     -0.117223
     0.579478
     0.782223
     0.683578
     0.48047
     0.398319
     0.62672
     0.78252
145  2.9e-11
     3.77592
     0.784129
     0.6744
     -0.117265
     0.579362
     0.782086
     0.683416
     0.480323
     0.398183
     0.626535
     0.782585
146  2.92e-11
     4.17747
     0.783927
     0.674088
     -0.117286
     0.579253
     0.781748
     0.683197
     0.480097
     0.397981
     0.626265
     0.782594
147  2.94e-11
     4.61092
     0.783589
     0.673689
     -0.117285
     0.579152
     0.78124
     0.682935
     0.47981
     0.397725
     0.625933
     0.782554
148  2.96e-11
     5.06641
     0.783142
     0.673234
     -0.117259
     0.57906
     0.780598
     0.682643
     0.479481
     0.397426
     0.625559
     0.78247
149  2.98e-11
     5.52558
     0.782618
     0.672749
     -0.117209
     0.578976
     0.779861
     0.682333
     0.479129
     0.397099
     0.625163
     0.782351
150  3e-11
     5.96383
     0.782044
     0.672261
     -0.117138
     0.578899
     0.779068
     0.682015
     0.478772
     0.396757
     0.624765
     0.782204
151  3.02e-11
     6.35499
     0.78145
     0.671791
     -0.117048
     0.578828
     0.778259
     0.6817
     0.478429
     0.396415
     0.624381
     0.782037
152  3.04e-11
     6.67645
     0.780862
     0.671359
     -0.116946
     0.57876
     0.77747
     0.681396
     0.478114
     0.396087
     0.624025
     0.781858
153  3.06e-11
     6.91265
     0.780304
     0.670977
     -0.116836
     0.578696
     0.776735
     0.681111
     0.477837
     0.395788
     0.623709
     0.781676
154  3.08e-11
     7.05637
     0.779796
     0.670655
     -0.116726
     0.578636
     0.776082
     0.680851
     0.477609
     0.395528
     0.62344
     0.781497
155  3.1e-11
     7.10829
     0.779353
     0.670399
     -0.116622
     0.578581
     0.775532
     0.680624
     0.477434
     0.395319
     0.623223
     0.781327
156  3.12e-11
     7.0759
     0.778988
     0.67021
     -0.116531
     0.578531
     0.775102
     0.680433
     0.477314
     0.395166
     0.623062
     0.781173
157  3.14e-11
     6.97236
     0.778707
     0.670086
     -0.116457
     0.578489
     0.7748
     0.680282
     0.477248
     0.395073
     0.622957
     0.781038
158  3.16e-11
     6.81533
     0.778515
     0.670024
     -0.116403
     0.578456
     0.77463
     0.680174
     0.477233
     0.39504
     0.622905
     0.780927
159  3.18e-11
     6.62574
     0.778411
     0.670019
     -0.116371
     0.578435
     0.774587
     0.68011
     0.477263
     0.395063
     0.622902
     0.780841
160  3.2e-11
     6.42611
     0.778392
     0.670064
     -0.11636
     0.578426
     0.774662
     0.680091
     0.477331
     0.395137
     0.622944
     0.780781
161  3.22e-11
     6.2386
     0.778451
     0.670151
     -0.11637
     0.578431
     0.774843
     0.680113
     0.477429
     0.395252
     0.623025
     0.780749
162  3.24e-11
     6.08288
     0.77858
     0.670273
     -0.116396
     0.57845
     0.77511
     0.680175
     0.47755
     0.395397
     0.623136
     0.780742
163  3.26e-11
     5.97446
     0.77877
     0.670422
     -0.116436
     0.578483
     0.775444
     0.680272
     0.477685
     0.395561
     0.623272
     0.780759
164  3.28e-11
     5.9235
     0.779009
     0.670589
     -0.116484
     0.578527
     0.775824
     0.680398
     0.477826
     0.395732
     0.623424
     0.780797
165  3.3e-11
     5.93426
     0.779286
     0.670768
     -0.116535
     0.578581
     0.776228
     0.680547
     0.477966
     0.3959
     0.623586
     0.780853
166  3.32e-11
     6.00502
     0.779589
     0.670951
     -0.116588
     0.578642
     0.776635
     0.680712
     0.478099
     0.396057
     0.623749
     0.780923
167  3.34e-11
     6.12855
     0.779907
     0.67113
     -0.116637
     0.578706
     0.777025
     0.680885
     0.47822
     0.396194
     0.623908
     0.781003
168  3.36e-11
     6.29294
     0.780231
     0.6713
     -0.11668
     0.578772
     0.777382
     0.681059
     0.478326
     0.396308
     0.624057
     0.781088
169  3.38e-11
     6.483
     0.780551
     0.671456
     -0.116717
     0.578834
     0.777693
     0.681226
     0.478415
     0.396395
     0.624191
     0.781176
170  3.4e-11
     6.68206
     0.78086
     0.671592
     -0.116746
     0.578891
     0.777947
     0.681379
     0.478485
     0.396456
     0.624306
     0.781262
171  3.42e-11
     6.87379
     0.781153
     0.671704
     -0.116769
     0.57894
     0.778137
     0.681514
     0.478536
     0.396493
     0.624398
     0.781343
172  3.44e-11
     7.04388
     0.781425
     0.671791
     -0.116785
     0.578978
     0.778262
     0.681624
     0.478568
     0.396507
     0.624467
     0.781416
173  3.46e-11
     7.18111
     0.781676
     0.671852
     -0.116796
     0.579005
     0.778321
     0.681708
     0.478583
     0.396503
     0.624512
     0.781479
174  3.48e-11
     7.27791
     0.781904
     0.671885
     -0.116803
     0.579019
     0.778318
     0.681763
     0.478582
     0.396486
     0.624532
     0.78153
175  3.5e-11
     7.33041
     0.782111
     0.671893
     -0.116807